# vtk DataFile Version 4.2
Generated Mesh Data
ASCII
DATASET POLYDATA
POINTS 14 float
0.500000 0.000000 0.000000
1.500000 0.000000 0.000000
2.500000 0.000000 0.000000
3.500000 0.000000 0.000000
4.500000 0.000000 0.000000
5.500000 0.000000 0.000000
6.500000 0.000000 0.000000
7.500000 0.000000 0.000000
8.500000 0.000000 0.000000
9.500000 0.000000 0.000000
10.500000 0.000000 0.000000
11.500000 0.000000 0.000000
12.500000 0.000000 0.000000
13.500000 0.000000 0.000000
POINT_DATA 14
SCALARS BC int 1
LOOKUP_TABLE default
0 0 0
0 0 0
0 0 0
1 0 0
1 0 0
1 0 0
1 0 0
1 0 0
1 0 0
1 0 0
1 0 0
1 0 0
1 0 0
0 0 0
SCALARS Color float 1
LOOKUP_TABLE default
0.0
0.0
0.0
1.0
1.0
1.0
1.0
1.0
1.0
1.0
1.0
1.0
1.0
0.0
