# vtk DataFile Version 3.0
VTK file for point data
ASCII
DATASET UNSTRUCTURED_GRID
POINTS 14 double
0.5 0 0
1.5 0 0
2.5 0 0
3.5 0 0
4.5 0 0
5.5 0 0
6.5 0 0
7.5 0 0
8.5 0 0
9.5 0 0
10.5 0 0
11.5 0 0
12.5 0 0
13.5 0 0
CELLS 14 28
1 0
1 1
1 2
1 3
1 4
1 5
1 6
1 7
1 8
1 9
1 10
1 11
1 12
1 13
CELL_TYPES 14
1
1
1
1
1
1
1
1
1
1
1
1
1
1
POINT_DATA 14
SCALARS volume double 1
LOOKUP_TABLE default
1
1
1
1
1
1
1
1
1
1
1
1
1
1
