# vtk DataFile Version 3.0
VTK file for point data
ASCII
DATASET UNSTRUCTURED_GRID
POINTS 10 double
0 0 0
1.11903 0 0
2.22751 0 0
3.32643 0 0
4.44437 0 0
5.54802 0 0
6.65865 0 0
7.77322 0 0
8.89215 0 0
10 0 0
CELLS 10 20
1 0
1 1
1 2
1 3
1 4
1 5
1 6
1 7
1 8
1 9
CELL_TYPES 10
1
1
1
1
1
1
1
1
1
1
POINT_DATA 10
SCALARS volume double 1
LOOKUP_TABLE default
1.11111
1.11111
1.11111
1.11111
1.11111
1.11111
1.11111
1.11111
1.11111
1.11111
