# vtk DataFile Version 3.0
VTK file for peridynamics mesh visualization
ASCII
DATASET UNSTRUCTURED_GRID
POINTS 13 double
0.5 0 0
1.5 0 0
2.95 0 0
3.95 0 0
4.95 0 0
5.95 0 0
6.95 0 0
7.95 0 0
8.95 0 0
9.95 0 0
10.95 0 0
11.95 0 0
18.75 0 0
CELLS 13 26
1 0
1 1
1 2
1 3
1 4
1 5
1 6
1 7
1 8
1 9
1 10
1 11
1 12
CELL_TYPES 13
1
1
1
1
1
1
1
1
1
1
1
1
1
POINT_DATA 13
SCALARS volume double 1
LOOKUP_TABLE default
1
1
1
1
1
1
1
1
1
1
1
1
1
SCALARS displacement_magnitude double 1
LOOKUP_TABLE default
0
0
0.45
0.45
0.45
0.45
0.45
0.45
0.45
0.45
0.45
0.45
6.25
SCALARS point_type int 1
LOOKUP_TABLE point_type_table
0
0
1
1
1
1
1
1
1
1
1
1
1
LOOKUP_TABLE point_type_table 2
1.0 0.0 0.0 1.0
0.0 0.0 1.0 1.0
VECTORS boundary_condition double
0 0 0
0 0 0
1 0 0
1 0 0
1 0 0
1 0 0
1 0 0
1 0 0
1 0 0
1 0 0
1 0 0
1 0 0
0 0 0
SCALARS strain_energy double 1
LOOKUP_TABLE default
0
0
0
0
0
0
0
0
0
0
0
0
0
VECTORS displacement double
0 0 0
0 0 0
0.45 0 0
0.45 0 0
0.45 0 0
0.45 0 0
0.45 0 0
0.45 0 0
0.45 0 0
0.45 0 0
0.45 0 0
0.45 0 0
6.25 0 0
