# vtk DataFile Version 3.0
VTK file for peridynamics mesh visualization
ASCII
DATASET UNSTRUCTURED_GRID
POINTS 9 double
0.5 0 0
1.5 0 0
2.5 0 0
3.48329 0 0
4.47455 0 0
5.47029 0 0
6.47771 0 0
7.48805 0 0
8.52656 0 0
CELLS 9 18
1 0
1 1
1 2
1 3
1 4
1 5
1 6
1 7
1 8
CELL_TYPES 9
1
1
1
1
1
1
1
1
1
POINT_DATA 9
SCALARS volume double 1
LOOKUP_TABLE default
1
1
1
1
1
1
1
1
1
SCALARS displacement_magnitude double 1
LOOKUP_TABLE default
0
0
0
0.0167095
0.0254485
0.0297143
0.0222915
0.0119528
0.0265625
SCALARS point_type int 1
LOOKUP_TABLE point_type_table
0
0
0
1
1
1
1
1
1
LOOKUP_TABLE point_type_table 2
1.0 0.0 0.0 1.0
0.0 0.0 1.0 1.0
VECTORS boundary_condition double
0 0 0
0 0 0
0 0 0
1 0 0
1 0 0
1 0 0
1 0 0
1 0 0
0 0 0
SCALARS strain_energy double 1
LOOKUP_TABLE default
0
0.000106719
0.000378242
0.000338837
0.000206359
0.000192202
0.000588262
0.000634971
0.000863907
VECTORS displacement double
0 0 0
0 0 0
0 0 0
-0.0167095 0 0
-0.0254485 0 0
-0.0297143 0 0
-0.0222915 0 0
-0.0119528 0 0
0.0265625 0 0
