# vtk DataFile Version 3.0
VTK file for peridynamics mesh visualization
ASCII
DATASET UNSTRUCTURED_GRID
POINTS 15 double
0.05 0.0 0.0
0.15 0.0 0.0
0.25 0.0 0.0
0.35 0.0 0.0
0.45 0.0 0.0
0.55 0.0 0.0
0.65 0.0 0.0
0.75 0.0 0.0
0.85 0.0 0.0
0.95 0.0 0.0
1.05 0.0 0.0
1.15 0.0 0.0
1.25 0.0 0.0
1.35 0.0 0.0
1.45 0.0 0.0
CELLS 15 30
1 0
1 1
1 2
1 3
1 4
1 5
1 6
1 7
1 8
1 9
1 10
1 11
1 12
1 13
1 14
CELL_TYPES 15
1
1
1
1
1
1
1
1
1
1
1
1
1
1
1
POINT_DATA 15
SCALARS point_type int 1
LOOKUP_TABLE point_type_table
0
0
0
1
1
1
1
1
1
1
1
1
1
1
0
LOOKUP_TABLE point_type_table 2
1.0 0.0 0.0 1.0
0.0 0.0 1.0 1.0
SCALARS volume double 1
LOOKUP_TABLE default
0.1
0.1
0.1
0.1
0.1
0.1
0.1
0.1
0.1
0.1
0.1
0.1
0.1
0.1
0.1
SCALARS displacement_magnitude double 1
LOOKUP_TABLE default
0
0
0
0
0
0
0
0
0
0
0
0
0
0
0
VECTORS boundary_condition double
0 0 0
0 0 0
0 0 0
1 0 0
1 0 0
1 0 0
1 0 0
1 0 0
1 0 0
1 0 0
1 0 0
1 0 0
1 0 0
1 0 0
0 0 0
SCALARS strain_energy double 1
LOOKUP_TABLE default
0
0
0
0
0
0
0
0
0
0
0
0
0
0
0
VECTORS displacement double
0 0 0
0 0 0
0 0 0
0 0 0
0 0 0
0 0 0
0 0 0
0 0 0
0 0 0
0 0 0
0 0 0
0 0 0
0 0 0
0 0 0
0 0 0
